ITEM: TIMESTEP
0
ITEM: NUMBER OF ATOMS
8192
ITEM: BOX BOUNDS pp pp pp
-3.7638590809830674e-01 5.1601487908099159e+01
-3.7638590809830674e-01 5.1601487908099159e+01
-3.7638590809830674e-01 5.1601487908099159e+01
ITEM: ATOMS id type mass x y z vx vy vz 
6 1 95.94 1.69692 0.692644 -0.0856297 2.22853 -5.76654 -4.09465 
6150 1 95.94 1.11424 2.66757 2.5445 3.1074 -1.93468 12.3231 
2201 1 95.94 6.21825 0.861902 13.2884 3.17844 -3.03477 10.6229 
3582 1 95.94 35.3088 10.6505 -0.452197 -1.91208 -3.53106 -2.58891 
4176 1 95.94 6.26951 1.70892 3.15701 0.320175 -0.813735 -10.6104 
5054 1 95.94 4.73554 1.37971 0.674824 1.02883 -5.53989 0.74776 
4282 1 95.94 7.34371 25.2849 7.86584 -0.854206 -9.14805 0.606959 
4098 1 95.94 7.57355 0.624659 0.925412 -0.820424 -2.95686 -2.72085 
2129 1 95.94 10.9713 3.19905 0.17905 5.5759 5.01654 -1.549 
2055 1 95.94 7.63277 3.55297 0.370879 0.34182 3.05401 0.433974 
7 1 95.94 11.9091 0.988947 2.31475 1.59907 -1.9999 -1.09251 
2057 1 95.94 13.7283 2.26996 3.55473 -4.11224 0.13162 2.38115 
1351 1 95.94 29.5714 24.8147 16.6944 1.26228 8.52358 -11.4897 
4178 1 95.94 16.8597 1.28599 3.51997 0.677673 3.95455 -12.463 
4173 1 95.94 15.8009 2.96322 0.809227 -2.43269 2.17037 0.0749273 
6153 1 95.94 17.9374 3.38479 2.14609 3.09621 3.43657 -1.7308 
4105 1 95.94 18.7475 2.80725 4.67373 -3.94839 3.95194 5.44929 
2051 1 95.94 18.8988 -0.159233 2.05541 0.849079 -3.27543 -5.65162 
4170 1 95.94 20.6846 1.87072 1.93029 -1.66043 9.24412 4.16647 
2053 1 95.94 24.7342 0.0215247 4.09785 5.13195 -6.16888 -1.55944 
11 1 95.94 24.9783 1.82055 0.987475 3.81173 -3.27467 -2.53052 
7202 1 95.94 23.2327 2.75739 2.5069 -5.78795 -3.8906 5.75766 
2309 1 95.94 22.079 24.9454 11.3911 -3.34414 4.32759 -6.24263 
110 1 95.94 21.9336 25.499 6.08215 4.31359 -6.25567 -2.86922 
3078 1 95.94 43.8238 2.1695 -0.223029 -5.39712 -5.57939 -4.01756 
1029 1 95.94 29.2625 2.52996 2.47905 -5.79593 -1.39027 1.34434 
5124 1 95.94 31.6004 1.48989 1.59535 -0.118107 3.23948 -3.64326 
2518 1 95.94 2.20628 25.4732 24.8641 0.337704 -2.61207 6.08701 
5195 1 95.94 34.1211 1.75925 0.503563 2.89502 -0.346155 9.48245 
7173 1 95.94 37.579 2.66542 3.03106 3.47091 5.79186 -5.21118 
7714 1 95.94 31.0369 18.8012 24.8227 1.63428 -3.41646 -9.85402 
1537 1 95.94 41.9982 -0.0587205 2.84789 -1.0372 -1.14632 4.9708 
5196 1 95.94 40.1101 1.97194 4.05967 2.78704 -2.00824 -3.14303 
5131 1 95.94 39.2379 0.379491 1.66606 2.61262 6.30828 -2.94616 
7174 1 95.94 41.4657 1.18719 0.421877 -0.982068 0.280786 10.5237 
5600 1 95.94 40.1831 25.2578 24.9861 -1.3232 0.439519 0.0836555 
5202 1 95.94 42.692 2.7729 2.2195 2.97698 1.06991 -6.59526 
1101 1 95.94 44.8159 1.25643 2.12546 -2.22119 2.97145 9.27969 
1603 1 95.94 48.0118 1.53641 1.04549 2.26038 -2.46092 5.03083 
3150 1 95.94 47.4624 2.86315 3.00843 2.5967 -0.930541 -1.04042 
4991 1 95.94 51.1601 0.966573 1.43123 -0.0223823 -2.28214 8.54588 
3145 1 95.94 49.3066 0.707323 3.37063 4.50919 4.93038 9.12378 
4107 1 95.94 0.0873994 5.3261 1.10905 -0.229967 8.5438 5.60866 
6224 1 95.94 2.19866 5.20352 3.075 -14.5917 4.20616 1.77825 
1047 1 95.94 25.5433 14.5874 0.181068 5.67392 -0.829047 5.14988 
7245 1 95.94 44.4487 0.185696 7.24309 -1.37145 -5.57373 -2.0776 
12 1 95.94 4.27152 5.70182 1.42108 5.47525 5.50005 4.37869 
80 1 95.94 4.08226 3.35217 2.99218 6.64835 -10.8918 -6.17653 
4097 1 95.94 6.4827 4.48562 2.6724 -1.45535 -5.47262 1.00425 
4103 1 95.94 6.42259 6.54487 -0.0135531 3.20977 -0.0343843 -4.6628 
4109 1 95.94 7.77768 6.2035 4.83304 -7.73116 1.85311 6.99036 
512 1 95.94 8.50205 5.7165 2.0673 0.572029 3.32501 -2.55687 
2056 1 95.94 13.6541 4.47122 1.03512 0.378592 7.1848 0.0695917 
6157 1 95.94 11.0899 6.66128 1.51148 4.72646 -1.34458 -1.40117 
4183 1 95.94 10.3014 6.36747 4.32053 5.29312 -3.04771 -3.74107 
535 1 95.94 9.0229 15.298 25.6095 -2.43383 1.37869 8.19729 
4179 1 95.94 15.9325 4.68621 2.9581 -1.32911 2.04868 -0.69337 
6158 1 95.94 15.4086 7.20941 2.14703 6.81941 8.53342 0.872565 
2132 1 95.94 20.8614 4.64456 3.03342 2.45379 -1.40359 1.56392 
2063 1 95.94 17.8357 5.7659 0.948087 1.28768 -5.88348 -4.59988 
10 1 95.94 20.6943 6.93557 1.82113 -1.06173 -3.18791 -3.39575 
7611 1 95.94 43.9925 -0.187804 22.5194 -3.06248 -4.85317 -5.44039 
2320 1 95.94 24.6008 4.94883 0.682525 6.50255 -1.16563 2.8224 
1104 1 95.94 23.4255 6.03272 2.9479 -8.49925 -0.544535 -1.24413 
7176 1 95.94 27.4415 3.79681 1.33273 0.122075 -3.25187 -1.89061 
3086 1 95.94 26.8691 6.07701 1.78734 1.28658 0.478041 -6.83673 
3112 1 95.94 36.1358 25.3582 -0.222937 -0.88762 -2.53013 -6.33368 
7172 1 95.94 32.8704 4.26062 1.3741 2.33189 1.2768 -12.3231 
5129 1 95.94 30.5139 5.51377 2.74869 -7.13512 2.83149 -1.75169 
7709 1 95.94 30.4722 15.8658 25.0047 -7.40814 -3.18612 -2.18866 
3087 1 95.94 29.361 6.13961 0.432828 4.60465 -11.1646 -12.3579 
7177 1 95.94 33.3338 4.98385 4.24129 -5.27923 -1.22154 -3.08395 
3082 1 95.94 36.1056 3.95509 1.0224 9.72443 -1.3234 -0.00322269 
5130 1 95.94 35.1 5.97318 2.59008 -5.32828 -0.210993 5.48254 
7178 1 95.94 37.7837 5.04836 2.80553 -0.0445124 -1.10823 21.7862 
3154 1 95.94 39.2763 4.55017 5.08936 0.903089 -1.1643 2.72715 
1401 1 95.94 45.2578 -0.23913 16.9048 -5.13467 -1.08519 3.48356 
3084 1 95.94 43.6355 5.05254 0.352239 0.377871 -3.67183 3.51015 
3155 1 95.94 40.2009 4.58599 2.61128 -11.4343 -1.19877 2.77967 
8133 1 95.94 45.5552 3.68279 1.57685 1.2768 -4.87045 -0.657772 
5132 1 95.94 48.0012 4.42214 0.690438 -3.33773 -0.426472 -3.98913 
6295 1 95.94 16.6727 0.244871 8.72686 -2.91427 6.30137 -1.79146 
7180 1 95.94 50.2196 2.97813 2.55158 3.22158 1.20874 5.43528 
79 1 95.94 22.3861 0.0757042 5.63573 -3.71434 -4.81523 -2.02353 
6161 1 95.94 2.0784 6.97396 0.427283 5.1498 0.275914 -7.17693 
2103 1 95.94 -0.432278 10.5734 1.38702 -3.74627 -0.955739 0.753529 
6228 1 95.94 2.06704 10.1431 3.21432 0.707929 -0.785586 -3.7639 
4175 1 95.94 0.518153 7.59077 2.83466 0.553518 5.6049 1.39966 
4113 1 95.94 2.48701 10.1329 0.746015 12.125 -6.89143 -2.18697 
7189 1 95.94 46.0404 12.8381 0.136832 1.96392 0.424803 -6.42864 
2066 1 95.94 4.73939 9.29675 1.56703 -0.235725 -1.58513 0.0570627 
13 1 95.94 7.84114 10.4279 2.12884 1.01978 -7.25296 2.85422 
4110 1 95.94 8.86796 8.27033 2.93892 -5.43344 2.08586 -1.86886 
2139 1 95.94 5.96588 7.33103 2.79819 5.3372 4.08609 -3.36062 
6163 1 95.94 11.8612 8.5111 3.68755 3.00651 -2.20905 2.20048 
507 1 95.94 13.7358 7.74047 0.366801 -2.83943 -1.18602 5.24877 
3012 1 95.94 10.5396 9.54152 1.38847 2.52274 -10.7593 2.44833 
3253 1 95.94 34.4392 25.2755 8.11084 12.7767 -2.49504 4.29219 
2068 1 95.94 15.8246 9.61699 1.31931 7.32029 8.02524 1.70052 
4116 1 95.94 17.7331 7.71885 2.94865 0.689149 -3.38454 -1.36375 
6164 1 95.94 17.5623 10.1677 3.54032 -0.577532 6.44866 4.0144 
6591 1 95.94 18.699 8.93139 1.04047 11.5632 1.90375 -2.26854 
2237 1 95.94 16.5602 24.4134 9.97036 -0.2367 4.64215 2.68132 
4986 1 95.94 21.5016 10.7795 1.59825 0.556421 -6.38351 8.31593 
4185 1 95.94 23.3878 7.25659 0.137762 -2.40037 -1.49016 -3.663 
1103 1 95.94 25.1603 8.09145 1.55231 4.52459 1.102 4.55959 
90 1 95.94 22.8654 8.84907 3.08774 1.58487 -1.55793 1.03486 
4117 1 95.94 23.5218 9.86221 0.481928 -0.452674 5.00208 -5.12408 
3085 1 95.94 27.4365 9.22844 2.58334 -4.36012 -2.23328 3.93802 
5133 1 95.94 26.2691 10.7471 0.723829 2.84165 -5.32039 0.194756 
1059 1 95.94 35.2031 22.8568 0.150906 1.73371 2.87827 2.07544 
7182 1 95.94 32.5053 7.26664 2.25302 4.75653 1.85029 -1.77123 
1110 1 95.94 29.8885 8.57951 2.04083 -1.65555 0.538849 -5.16516 
1039 1 95.94 34.8579 8.44276 1.16143 4.94973 2.67624 7.8745 
5135 1 95.94 32.6733 9.6707 0.295683 3.09647 -2.05285 7.07126 
5201 1 95.94 38.9425 6.10511 0.577992 -5.15058 0.815129 -2.50422 
7183 1 95.94 39.5424 8.64447 0.895031 -1.36406 -5.81445 3.78063 
5207 1 95.94 42.112 9.26266 2.638 -4.96706 2.89675 1.4702 
1985 1 95.94 43.8213 10.9062 0.468163 -1.02127 1.69538 -0.0341749 
5136 1 95.94 41.7087 6.67802 0.888665 1.3308 4.65857 4.31099 
3089 1 95.94 44.1333 8.1892 1.69801 -6.63124 6.87212 -3.76131 
2499 1 95.94 0.683015 7.159 25.3361 -13.0954 -1.00601 -3.36745 
1042 1 95.94 47.441 8.39143 2.11686 -0.785132 3.37734 -2.0835 
1046 1 95.94 45.0721 11.1967 2.55125 -5.61793 -1.07574 -2.8996 
2105 1 95.94 51.0678 8.09972 0.53891 0.318746 -5.86555 6.81847 
5208 1 95.94 49.8924 9.21068 3.66477 6.19551 -6.14058 3.56172 
1113 1 95.94 49.8994 6.48791 2.13544 2.23679 1.19565 -2.83194 
4556 1 95.94 22.8284 11.0088 24.9638 -0.153735 -1.95172 10.1119 
2065 1 95.94 1.36848 12.4286 1.50404 -6.58384 5.05397 -5.33554 
3166 1 95.94 51.3498 11.1346 3.99388 -4.74626 -3.38971 -2.14697 
17 1 95.94 5.30796 11.3189 0.512333 1.26624 4.19774 -7.54312 
6235 1 95.94 3.65712 12.3648 2.5864 -2.42899 -0.320447 1.85793 
6236 1 95.94 6.27814 12.7204 3.23779 2.75794 3.1415 -8.33361 
4638 1 95.94 4.28068 13.9321 0.838185 2.58726 -4.88951 -3.17301 
24 1 95.94 7.32717 13.4847 0.884482 -3.42726 -0.0493759 1.0991 
6162 1 95.94 8.7119 13.0986 3.1872 -0.335847 9.96732 -4.05498 
2067 1 95.94 11.6975 11.9466 2.86285 -2.91823 -3.63607 -2.4575 
4229 1 95.94 13.4093 13.0495 1.0894 12.059 -1.02108 -10.1149 
776 1 95.94 13.4128 9.7712 2.06372 2.4388 -2.603 4.05164 
26 1 95.94 16.9937 12.8956 3.74371 2.79033 7.58373 1.97856 
7113 1 95.94 16.1984 12.5834 1.12903 -1.73489 -2.17516 -3.78874 
864 1 95.94 19.1602 12.0159 1.66523 -0.0995736 -11.3418 -3.83943 
4112 1 95.94 24.7656 10.6879 3.15441 -2.77042 -0.214176 -4.85981 
5065 1 95.94 21.6743 13.2162 2.56322 5.3398 3.65172 -0.501145 
7186 1 95.94 23.8853 12.3215 1.00553 1.08783 0.918158 7.56984 
2229 1 95.94 12.0785 24.867 12.0981 -4.22763 4.36806 2.56515 
7258 1 95.94 26.1393 13.1685 2.48004 9.36224 2.42246 -4.62614 
5134 1 95.94 28.7232 11.7636 1.61307 2.84847 -1.60074 -9.70069 
5138 1 95.94 26.7409 11.7649 4.49019 -4.98656 -1.77711 0.129825 
1534 1 95.94 31.0392 7.31311 25.0877 0.276151 -3.26584 7.34167 
6094 1 95.94 31.23 11.4356 1.89982 5.70274 -4.56646 -3.64949 
6225 1 95.94 13.5936 1.46169 0.537215 4.12521 6.18463 -6.60032 
1114 1 95.94 28.8548 13.4481 4.38641 0.221351 4.63016 4.46739 
5140 1 95.94 38.0933 9.40901 4.73546 4.23228 -2.15193 -0.451104 
7187 1 95.94 34.5876 11.2833 2.14392 -3.22918 1.49244 -3.91482 
3096 1 95.94 35.4527 13.7136 0.561447 2.43225 0.354074 -7.73873 
3164 1 95.94 36.848 12.6448 3.23669 12.0411 -2.09255 0.885667 
6140 1 95.94 33.1879 13.8134 1.73704 7.42096 -6.65999 -6.35576 
2525 1 95.94 5.06983 25.1494 24.489 1.27123 -1.97757 3.23772 
5212 1 95.94 37.2816 10.1946 1.84106 4.54835 0.958999 2.49508 
7260 1 95.94 39.5478 11.2074 2.57103 -3.45614 -1.31551 2.25783 
3092 1 95.94 37.8214 13.001 0.788483 -6.49887 10.1544 -5.23239 
5146 1 95.94 43.516 13.0807 0.902073 -5.14068 -2.61948 -0.268161 
1045 1 95.94 42.4276 12.0123 3.23153 -8.21453 5.96961 -0.482043 
3094 1 95.94 48.0789 10.8442 1.11413 -1.02365 -4.41131 1.54756 
6391 1 95.94 21.2092 -0.129602 20.4341 7.95423 3.50606 2.75941 
5147 1 95.94 46.8523 13.071 2.44679 -1.32838 3.73857 5.76686 
1119 1 95.94 51.0979 13.2411 0.646321 -0.668674 6.10131 -1.90223 
5218 1 95.94 49.6586 12.4275 3.06343 -0.146331 -4.90736 0.113085 
2070 1 95.94 2.51923 15.1651 2.38257 -0.129375 5.82837 -2.18634 
6165 1 95.94 0.902956 17.4771 1.34188 -2.13638 1.9715 1.84753 
23 1 95.94 4.77298 15.4452 2.99502 -4.70427 -1.24953 -7.5369 
22 1 95.94 3.49973 18.0603 2.49503 -3.78459 0.0787799 1.34138 
5122 1 95.94 3.4768 16.6493 -0.172396 -2.31983 4.43757 -0.961874 
2077 1 95.94 6.28472 18.4906 2.10181 -1.0826 2.59855 -3.0645 
1531 1 95.94 39.3533 18.7164 25.2875 -0.502865 -7.94774 -4.67852 
6240 1 95.94 7.66193 15.9586 2.62424 1.08569 2.38519 5.25546 
4119 1 95.94 6.28947 15.9554 0.594626 4.39852 -5.40956 3.09154 
2072 1 95.94 10.1498 14.9155 1.90357 4.57846 -8.98994 -0.66727 
530 1 95.94 12.8314 16.5732 1.42675 4.31562 -2.92118 8.31843 
7275 1 95.94 37.0156 25.2616 3.86401 -2.52037 3.50303 -1.82119 
25 1 95.94 14.984 15.1961 2.3815 -0.113646 -3.43646 4.78979 
2078 1 95.94 15.722 18.1724 3.12053 -4.61057 -6.15157 -1.23245 
6281 1 95.94 16.2425 17.2844 0.668192 -6.87295 -2.62372 -1.61348 
6169 1 95.94 17.3527 14.8577 1.09097 2.15918 -3.48414 -1.51582 
644 1 95.94 19.9422 15.1393 0.822085 -3.21091 -8.16535 2.57552 
537 1 95.94 18.1957 16.9953 2.5375 -5.99913 0.13926 3.37434 
2074 1 95.94 19.3263 14.293 3.2371 2.38132 -5.1016 -1.02108 
27 1 95.94 21.2794 16.798 1.97082 -1.81216 -3.4646 5.32785 
4053 1 95.94 47.5174 15.348 0.498206 -2.81736 -1.50929 -2.151 
3071 1 95.94 22.6262 14.8692 0.238703 -1.92035 -6.08266 -1.3409 
3142 1 95.94 24.0438 17.3857 0.906708 -2.4634 4.28321 -2.8598 
4523 1 95.94 23.8915 15.036 2.66594 -1.77807 3.06275 -4.56549 
3297 1 95.94 48.7993 0.16767 10.4749 1.72964 8.60855 3.5665 
5143 1 95.94 28.4063 14.1209 1.67144 -0.912038 3.02482 -0.217272 
2272 1 95.94 8.73184 -0.181742 11.8087 1.82353 7.95061 3.34218 
5215 1 95.94 26.2645 16.4889 2.55658 -1.49299 3.874 3.17557 
7191 1 95.94 31.9913 16.7991 1.28113 -7.02359 -6.51978 0.31786 
3168 1 95.94 30.7611 14.4473 2.52682 4.95604 -6.06233 -0.314867 
5149 1 95.94 29.2259 17.2625 1.42719 8.92479 2.26896 -5.88427 
7192 1 95.94 34.2856 16.0439 0.705968 6.85658 -11.1813 -2.12747 
5151 1 95.94 40.8812 17.7313 1.78513 -6.01827 -5.40416 -1.09463 
1121 1 95.94 36.4299 15.1418 2.23892 4.06227 1.56932 -4.11482 
3098 1 95.94 42.5454 14.8995 2.56485 -5.7012 -6.99847 6.44114 
3176 1 95.94 42.8971 17.3757 0.334502 -6.0817 -11.412 2.59337 
1050 1 95.94 45.1231 15.5335 1.37302 3.02046 -5.80959 -1.63949 
3099 1 95.94 43.8312 17.5205 2.98175 -1.75688 -5.3761 -0.0605655 
7181 1 95.94 32.8514 6.68716 -0.0311654 -4.7375 6.27944 6.26382 
7607 1 95.94 47.0786 16.0219 3.16227 -1.22387 -4.22835 3.7894 
7280 1 95.94 37.2077 25.0207 6.95063 -5.32434 -8.9372 2.03155 
5585 1 95.94 27.1287 0.384755 0.946383 -1.29349 -5.70354 1.16169 
5148 1 95.94 49.2522 17.6079 2.02853 -13.907 5.46467 -4.05472 
3171 1 95.94 49.4306 14.7273 2.29875 -0.35188 -4.12008 0.821647 
7114 1 95.94 24.4719 5.26168 25.3096 -5.13114 9.17036 7.95498 
1333 1 95.94 46.741 18.139 1.71086 -5.68088 -4.19902 0.0618294 
6646 1 95.94 -0.0683577 21.1414 1.08843 -0.349011 -3.097 6.29508 
7606 1 95.94 43.0021 -0.0983972 18.053 -1.97869 -5.23067 -1.07332 
4550 1 95.94 21.3791 5.18406 25.0113 5.76085 2.30276 -1.4165 
7127 1 95.94 4.51591 20.6483 1.60605 1.24264 -6.9889 3.61911 
4120 1 95.94 9.04399 17.5993 1.12067 -5.87308 -0.0274093 1.86948 
6171 1 95.94 7.15499 20.4256 0.521818 -0.309809 -0.229061 1.34194 
2149 1 95.94 6.91569 21.0729 3.39089 0.479218 -5.28209 -7.33147 
29 1 95.94 9.20601 21.5425 1.42075 -0.518913 -1.65294 -4.90748 
4125 1 95.94 11.2742 19.0419 1.67854 5.21304 -1.40521 4.87943 
981 1 95.94 14.2367 19.442 0.954737 3.19956 -5.06446 2.82178 
30 1 95.94 17.3009 19.2921 1.1486 -5.30787 -3.92099 1.36001 
31 1 95.94 19.7601 19.4771 2.55012 0.51508 6.66566 18.028 
1124 1 95.94 22.7814 19.6632 2.06422 1.86339 5.32953 4.228 
4465 1 95.94 11.0477 -0.045968 19.1319 -1.32198 -2.56086 16.3288 
1053 1 95.94 25.8997 19.3852 1.87753 2.77479 -1.26218 2.01804 
5629 1 95.94 28.2706 19.4744 0.474914 -4.60536 -9.60657 8.78612 
7267 1 95.94 30.4116 21.2153 2.96397 -7.73847 4.58105 1.94682 
5155 1 95.94 31.4708 19.3726 0.688341 1.73316 -4.11505 -10.1782 
7268 1 95.94 30.8225 17.5804 3.36367 -6.04844 1.84783 3.05243 
5154 1 95.94 33.4916 19.0186 2.39936 3.72941 -6.48787 2.22394 
5222 1 95.94 36.1346 18.1349 -0.400308 3.78533 7.18954 -7.20376 
7198 1 95.94 36.0872 20.3029 1.98442 -2.03564 9.96527 5.08551 
5292 1 95.94 36.3477 17.5546 2.96153 -3.31311 -2.92423 1.04815 
1055 1 95.94 38.0801 19.0762 1.0798 -2.1617 -5.9385 2.5128 
5223 1 95.94 39.3073 21.4513 2.31163 1.44147 -3.40578 7.03576 
1393 1 95.94 30.604 -0.033212 17.0559 1.68786 4.65948 0.714493 
1547 1 95.94 42.4595 20.181 2.45597 -0.250859 3.71773 4.21626 
7200 1 95.94 44.6811 19.7165 0.65297 2.50672 1.6815 6.83976 
3108 1 95.94 41.7385 23.0245 2.22796 -1.88639 -4.40817 -8.68382 
7342 1 95.94 46.0942 24.349 1.56674 -5.76566 -3.22489 4.96275 
5224 1 95.94 46.9056 20.9295 1.69864 -5.73528 -1.40605 3.16182 
5299 1 95.94 49.1796 20.4229 1.29719 8.56618 2.27306 6.82989 
3110 1 95.94 48.3276 22.9716 0.27681 1.50846 1.10791 5.177 
6728 1 95.94 1.28135 25.1107 0.825025 -3.97594 1.30095 3.1913 
32 1 95.94 2.21319 22.4556 2.57 9.65614 0.681765 -0.0248713 
6102 1 95.94 51.0267 18.8475 0.0891856 -2.68908 6.14039 -2.21486 
33 1 95.94 4.13032 23.4914 0.336148 -0.85307 -1.53354 4.3778 
4128 1 95.94 3.39139 24.2783 4.63767 -8.61745 1.67286 -5.07577 
8149 1 95.94 40.6552 15.6456 -0.0253639 6.93483 -3.44952 1.04511 
6177 1 95.94 11.5271 22.7492 -0.14431 -0.768621 9.99716 -8.38363 
4106 1 95.94 6.52102 22.8839 1.1793 -0.946619 -8.2826 2.1473 
6182 1 95.94 9.63773 24.2568 2.05864 8.86103 -1.74125 3.52947 
2156 1 95.94 11.6452 21.4533 2.59404 -5.57286 -3.47624 0.576346 
2083 1 95.94 13.8783 22.4592 0.911932 -3.21412 9.58849 -2.06743 
4136 1 95.94 12.4571 24.4444 2.09186 -0.216289 -2.02056 4.72074 
34 1 95.94 14.9437 24.4178 2.43522 4.55676 -0.311942 -8.15327 
6178 1 95.94 16.7013 22.2533 2.18014 6.17273 1.83359 -2.26153 
4131 1 95.94 17.7463 25.0061 2.88217 -3.87164 2.08028 2.14936 
2756 1 95.94 -0.505904 24.4898 25.2194 -11.1752 0.292949 -1.85676 
370 1 95.94 13.4137 0.0286783 20.1112 9.50204 -2.38268 2.91661 
2084 1 95.94 19.0074 22.378 3.4207 -6.68059 -0.400706 4.89871 
2079 1 95.94 21.4546 22.2576 1.66932 -2.31411 -2.20852 -0.014255 
4655 1 95.94 20.8193 4.25611 0.12463 -4.44217 8.50208 -2.22883 
36 1 95.94 19.9076 24.1776 0.867298 10.2114 -3.80777 -1.4785 
1468 1 95.94 24.3336 21.225 0.789003 -1.28053 -11.9553 -3.33955 
37 1 95.94 22.6595 24.1255 3.26526 5.10243 5.91662 -0.537168 
2085 1 95.94 22.9564 23.9731 0.4722 2.48714 0.469711 -1.75069 
7201 1 95.94 25.0111 23.2083 2.10222 -1.56999 2.80834 1.50272 
1063 1 95.94 29.0819 23.3113 1.7245 -3.28695 7.38488 5.26628 
3105 1 95.94 27.2369 21.7544 2.83493 2.1561 -3.90079 2.94626 
4060 1 95.94 27.0367 22.056 0.158051 0.149419 1.61752 -4.71341 
5523 1 95.94 49.0655 24.9522 20.5429 -1.97205 -8.51688 -0.0539139 
3044 1 95.94 5.70163 25.6694 0.297296 0.176636 9.35843 -7.69829 
7718 1 95.94 44.1685 19.1324 25.0328 5.97282 -6.17185 1.45428 
1131 1 95.94 31.5439 23.9706 2.1629 -0.437508 -1.10944 2.86244 
5234 1 95.94 40.2893 24.7891 0.4452 -3.03421 -1.94578 -1.1161 
6146 1 95.94 16.1292 0.0490524 0.642941 -3.70635 -2.67421 -2.26618 
3102 1 95.94 33.1866 21.7622 1.76576 2.63323 -1.12741 3.48015 
3107 1 95.94 36.5353 22.7531 2.73737 -0.124696 1.08542 -2.47907 
1096 1 95.94 38.1009 23.3828 0.355026 1.85952 1.02882 -5.60189 
1060 1 95.94 39.3894 24.0651 2.9924 7.42962 -2.10526 -3.01969 
4429 1 95.94 21.9634 25.4686 14.4708 -0.41274 -1.0614 -2.47894 
3113 1 95.94 43.4963 24.7899 0.386656 -8.1766 4.87207 3.35019 
7204 1 95.94 42.9146 22.0833 0.0781358 -6.70259 -11.3986 1.87642 
3103 1 95.94 44.3873 22.377 2.21526 -3.61845 -1.49947 4.04556 
7649 1 95.94 48.9796 22.8525 24.4681 -1.16559 1.55823 -3.07451 
5453 1 95.94 42.7494 25.466 14.0128 -8.62539 -5.95513 -0.0332809 
5117 1 95.94 51.0582 23.4627 1.56196 7.51343 -2.0971 0.735572 
1062 1 95.94 48.3622 24.7726 2.01606 -6.70213 -5.08382 -0.237896 
1428 1 95.94 27.4404 24.9737 18.4638 6.61695 -0.538267 -7.92405 
4430 1 95.94 25.2251 24.9906 15.0767 0.576801 -4.22206 -2.81261 
7228 1 95.94 2.07006 0.801096 5.09181 -3.66172 -1.65114 -2.06649 
7499 1 95.94 31.8239 25.3059 14.6635 4.17193 2.82201 6.56643 
6229 1 95.94 4.87503 1.51529 5.19413 8.87554 0.669331 -0.299454 
4248 1 95.94 3.1257 1.88736 7.51076 -3.39553 2.62781 4.76087 
2153 1 95.94 20.9473 19.6759 -0.115153 -1.48489 -0.631538 -9.27524 
149 1 95.94 7.92052 1.20761 5.78537 -1.26258 -0.271647 6.66929 
1353 1 95.94 49.0124 25.484 17.1274 2.5274 0.944872 3.04447 
4172 1 95.94 10.2964 1.79844 4.57834 -6.03565 4.42294 -0.960571 
2130 1 95.94 9.53188 2.56706 1.90687 5.04903 -1.83232 -4.99463 
8 1 95.94 11.3687 3.98514 3.06197 -1.71816 8.391 -9.57063 
2125 1 95.94 12.3875 0.113358 4.92193 3.3152 4.56652 -6.30667 
82 1 95.94 12.8614 2.12777 6.54383 2.59013 -1.92116 1.87942 
4244 1 95.94 4.04994 -0.458044 8.86384 -6.4172 -6.50926 5.3175 
6293 1 95.94 14.6447 0.555836 5.73561 1.70037 -2.21549 -0.0793848 
151 1 95.94 17.0569 0.785917 5.94853 -0.282443 -13.4945 1.20892 
2131 1 95.94 16.0674 3.30741 5.14464 -1.92853 3.28014 4.76016 
6622 1 95.94 16.4456 25.6404 22.0079 -5.38791 11.7898 0.633838 
78 1 95.94 19.9304 0.749323 6.66233 4.80406 -1.28122 0.735985 
7566 1 95.94 40.0996 21.6758 0.180482 0.439568 1.26868 0.859959 
6222 1 95.94 21.6418 2.48329 4.65086 -6.91987 -1.66373 4.08202 
6154 1 95.94 24.2507 2.48422 5.04562 0.811944 8.1365 -3.61401 
157 1 95.94 22.0445 2.08497 7.24014 -1.36615 -4.41262 -7.55843 
3146 1 95.94 27.0563 0.136798 5.65423 2.83566 -1.9109 0.277937 
7241 1 95.94 26.7674 1.49622 3.61321 2.13816 -1.34013 3.39024 
7247 1 95.94 29.0471 2.09649 4.9402 5.72572 2.59095 -2.56171 
7316 1 95.94 33.2784 0.554114 3.76751 0.0701121 -5.51713 -3.65626 
3147 1 95.94 30.4616 0.273772 4.0445 2.35289 -1.0144 -0.182413 
5200 1 95.94 31.4536 3.30311 3.56146 1.09936 -4.59184 0.427539 
7243 1 95.94 35.9371 1.72478 4.60954 1.95202 3.49071 -4.66183 
1099 1 95.94 34.5988 2.69622 2.92867 -6.848 5.1286 9.19674 
7244 1 95.94 37.6685 -0.00471232 4.08562 2.38316 -1.19023 2.16699 
3148 1 95.94 39.3514 0.0150146 6.696 6.00818 -5.17787 6.41267 
7250 1 95.94 40.7095 2.08791 6.358 4.78691 -4.04843 0.0565678 
7249 1 95.94 38.163 2.64373 6.32306 5.5991 -2.2596 -2.89896 
3553 1 95.94 47.3351 25.0336 22.6701 2.6631 -4.08127 11.3412 
1107 1 95.94 43.0751 1.4952 4.75088 0.26367 -0.558287 3.89856 
5271 1 95.94 42.4916 1.03397 7.86469 4.09715 -5.1443 -2.99314 
1005 1 95.94 1.96701 21.9099 -0.298982 -5.07864 -3.36449 3.1853 
1102 1 95.94 46.4337 0.732707 5.02496 -0.890832 12.049 -7.78116 
7326 1 95.94 43.7443 3.52675 6.85498 2.50756 2.14961 2.84632 
5128 1 95.94 49.2566 2.58553 5.63321 2.81962 -4.09883 -1.66134 
1037 1 95.94 51.4018 1.78278 4.69147 3.73122 -3.60472 4.17914 
4563 1 95.94 9.55554 20.0259 25.6793 -11.6108 1.66453 5.34354 
2054 1 95.94 -0.120139 4.80959 3.84382 1.03592 4.46837 6.75442 
6223 1 95.94 2.13196 3.23949 5.17015 -6.14117 0.975799 -5.58102 
86 1 95.94 4.71849 5.65142 4.86804 2.63393 2.15356 1.14452 
4249 1 95.94 4.79307 3.83656 7.04118 -1.16005 0.285523 -9.55402 
81 1 95.94 6.99934 3.74182 6.18545 -3.74226 7.86053 4.00566 
2061 1 95.94 8.74995 3.72041 3.85649 -3.58162 -2.3093 -6.02392 
6304 1 95.94 8.55101 8.05487 6.46066 1.48916 1.85697 2.99768 
2136 1 95.94 13.1857 6.40877 3.24097 2.82296 7.7608 1.2473 
2208 1 95.94 11.7453 4.44622 5.62757 -0.305998 -5.77728 3.75137 
89 1 95.94 16.0234 6.45996 5.03182 -1.53538 -4.30932 -1.78705 
6299 1 95.94 17.42 5.14148 6.49924 -8.56425 -10.8379 -0.992032 
4251 1 95.94 14.0419 4.68 6.35921 4.77864 -2.46849 0.743687 
4253 1 95.94 20.3044 4.27044 6.0477 6.32942 -1.69699 -2.50385 
6227 1 95.94 18.3141 5.32827 4.25948 9.78392 5.02192 12.0872 
6232 1 95.94 19.3785 7.07648 6.40988 1.0262 -0.257356 -7.85369 
6159 1 95.94 21.3274 6.62435 4.35791 3.3922 -5.76368 -4.60395 
2205 1 95.94 22.0472 5.90027 7.002 -0.0255422 -3.96093 -6.39047 
84 1 95.94 22.9348 4.68933 5.03737 5.14229 -4.83512 -0.448101 
5199 1 95.94 23.4594 7.56618 5.72564 2.23171 1.36622 -6.84853 
5194 1 95.94 25.5749 3.82675 3.24771 -7.84186 2.02816 -4.34746 
3152 1 95.94 27.9324 4.66422 4.25561 -3.25538 -1.15859 3.6049 
3151 1 95.94 25.9609 5.61674 5.68751 -12.2468 -11.1124 -7.20145 
7322 1 95.94 26.6971 2.87703 6.54775 5.29983 4.98669 0.756122 
1179 1 95.94 30.4392 6.19795 5.75415 -6.16655 -0.142827 -4.52835 
1105 1 95.94 35.4706 3.35182 7.29575 11.4343 -2.31601 5.56337 
7248 1 95.94 34.1794 7.21277 5.1951 10.93 -7.04422 7.5972 
3228 1 95.94 33.5211 2.70761 5.92957 -2.67056 12.3459 -2.99288 
3153 1 95.94 35.9315 4.50499 4.92635 7.94561 -15.1104 1.11755 
5276 1 95.94 33.2693 5.58599 7.17114 0.451429 -6.41106 -0.613611 
3158 1 95.94 37.2008 5.73112 6.93616 4.39234 -3.74257 -3.81884 
1186 1 95.94 39.7576 5.12208 7.43712 -0.278699 3.52261 -0.638057 
1106 1 95.94 41.9854 4.3816 4.81976 0.611653 -10.4546 0.584868 
7254 1 95.94 43.6901 5.93323 3.1542 -5.88948 3.07902 -4.22816 
5282 1 95.94 42.3137 6.37057 7.69903 -2.32215 8.92367 1.02639 
5203 1 95.94 44.5786 3.36364 4.00755 -0.81347 -12.9393 -0.895295 
3160 1 95.94 44.5356 5.65893 5.61531 6.2692 -8.1146 -3.10143 
7255 1 95.94 46.5934 5.65145 3.13456 -2.64401 5.4296 -8.78438 
1111 1 95.94 46.3121 6.7793 6.49757 7.63516 -2.44444 1.71678 
1108 1 95.94 46.4102 3.94129 5.54528 -3.99132 -1.57933 1.87413 
3231 1 95.94 48.9724 5.10621 4.33309 -8.87874 10.2 6.27129 
6296 1 95.94 51.4532 4.28445 6.48977 1.84167 -4.35989 -2.19707 
2060 1 95.94 1.76289 6.40488 5.28751 -2.40589 -4.06086 -6.47147 
4180 1 95.94 0.707748 9.19847 5.6993 -3.71438 5.26755 3.40551 
85 1 95.94 3.5477 7.77708 3.40475 0.0866316 -1.63185 -1.04478 
2134 1 95.94 3.40862 9.04568 5.66778 6.54585 1.47985 -1.07471 
4177 1 95.94 5.68092 8.01997 5.12597 -2.05611 -1.19557 1.02106 
4187 1 95.94 2.63138 11.4469 6.04549 -7.73864 -4.48739 -10.3358 
93 1 95.94 5.00028 10.5232 4.01735 0.0622162 2.00117 4.58092 
92 1 95.94 9.96435 10.5784 4.32366 1.91298 -7.24041 4.97862 
4182 1 95.94 7.46451 10.7459 5.21983 1.84277 -2.70077 -12.4794 
4189 1 95.94 9.34172 10.7625 7.11732 -2.64714 -5.15208 -2.6527 
2135 1 95.94 10.9128 8.75292 6.60723 -2.48941 -0.0205507 2.3781 
4184 1 95.94 13.0713 7.14839 5.65988 -10.8771 -7.34252 0.138041 
2137 1 95.94 15.6322 7.31416 7.482 2.49226 -5.41209 -0.0805898 
6237 1 95.94 14.8975 8.78665 4.15185 -4.51467 1.74526 7.13873 
88 1 95.94 17.5145 8.8622 5.76242 0.819102 -6.79389 -0.495299 
95 1 95.94 20.1251 8.8601 4.24812 1.90941 0.502549 -7.32485 
7651 1 95.94 21.6044 9.10865 6.76079 3.69887 1.37558 -5.43003 
6233 1 95.94 24.4346 9.73401 5.51475 4.40737 8.20195 0.854104 
5284 1 95.94 25.5445 7.89233 4.04164 -7.34481 -10.8775 -6.19132 
4191 1 95.94 22.0384 11.0342 4.27845 -1.6225 1.17369 -2.27409 
5205 1 95.94 28.248 6.97189 6.88755 -2.47024 -10.2542 3.41755 
7252 1 95.94 27.0959 9.43108 5.36512 9.12437 -6.64218 -1.24129 
1038 1 95.94 29.7339 10.5294 4.33676 -0.765674 -2.50971 -7.90914 
1116 1 95.94 32.7969 9.97818 3.06428 -1.152 -6.49388 -2.97259 
3157 1 95.94 28.8294 7.52425 4.11197 -2.1459 1.93711 -1.52957 
3162 1 95.94 30.1713 8.96364 6.49678 -11.3534 0.992642 -3.26764 
7253 1 95.94 31.5854 7.99624 4.47932 -0.197369 -5.30419 -1.14517 
5286 1 95.94 35.436 9.00145 3.56322 -1.48947 -5.10289 -5.28457 
3163 1 95.94 34.1112 9.58121 6.32742 3.08227 -0.291552 4.00582 
3239 1 95.94 37.1061 6.7748 4.68797 0.591796 -0.258597 0.891669 
7179 1 95.94 39.8102 7.35481 3.31566 -0.315493 -3.94216 -1.28234 
5206 1 95.94 39.8233 7.50973 6.33625 -0.0235498 1.69535 -3.68056 
3159 1 95.94 37.2584 7.62444 1.74694 -8.95724 -1.6487 -0.7162 
3088 1 95.94 40.9374 9.72317 4.87303 -5.16013 -9.02274 9.32529 
5141 1 95.94 43.7386 10.2883 5.15702 -0.0870865 -8.44138 0.964862 
1117 1 95.94 42.3084 7.55828 4.59131 3.34871 -0.173011 -8.79324 
7262 1 95.94 45.5557 7.97416 4.30763 -3.96987 -6.99433 -5.88114 
5214 1 95.94 47.3869 10.5722 3.90891 1.07419 -1.63616 -12.1863 
7336 1 95.94 46.7548 9.62309 6.53159 4.60502 0.5099 -3.60779 
5158 1 95.94 50.9217 7.21092 4.97845 -0.657718 3.77289 0.873881 
2491 1 95.94 49.987 9.37753 6.17557 -6.77791 1.93978 -2.96588 
1112 1 95.94 48.2669 7.47494 4.8529 0.393443 -7.23134 6.90653 
2138 1 95.94 1.4979 12.8498 4.12212 0.289907 3.84958 1.8194 
6301 1 95.94 -0.466169 11.5463 6.6519 -2.65968 -5.34444 4.94967 
6234 1 95.94 2.30466 13.8697 7.19736 -1.32273 -3.11837 11.8634 
97 1 95.94 5.14377 12.2178 5.89081 9.2221 0.901244 6.65883 
6166 1 95.94 3.55636 13.7616 4.91959 -3.35184 6.90826 -2.06948 
6167 1 95.94 7.17944 15.3125 4.93523 2.98049 10.0118 0.0892405 
2140 1 95.94 10.2357 14.9884 4.45452 -1.11912 -3.16456 4.17968 
2141 1 95.94 8.15 13.0142 5.71426 1.59454 15.2187 -1.5351 
19 1 95.94 12.9892 13.4953 4.6604 5.12853 -8.51288 -0.893552 
87 1 95.94 12.5462 10.6738 5.24459 -1.86692 8.50395 2.53682 
4190 1 95.94 12.5693 14.5068 7.05653 -0.00718037 0.409084 3.98612 
2146 1 95.94 10.5295 12.643 5.78684 -2.12315 -2.38638 -7.08433 
2073 1 95.94 14.4947 11.7489 3.20039 2.4844 -3.19331 6.33755 
6231 1 95.94 13.9 12.4448 7.33077 -0.235679 3.55066 0.398904 
2142 1 95.94 15.889 11.2825 5.7789 -0.338598 0.318992 7.859 
2069 1 95.94 19.6684 11.7146 4.17779 5.93036 2.06486 -0.105916 
6239 1 95.94 21.2778 13.3494 5.2917 4.63432 -6.31698 3.58504 
4121 1 95.94 18.4393 14.083 6.18684 8.53733 4.92346 -12.0336 
167 1 95.94 19.0799 10.872 6.18987 3.17347 -2.47148 17.0023 
3131 1 95.94 24.139 13.1712 4.44232 6.32774 0.306733 -0.25424 
4263 1 95.94 26.0083 11.1177 7.46208 -5.18336 -2.72678 3.26472 
7257 1 95.94 26.6104 14.8668 4.6097 7.06718 1.11598 -3.96248 
3161 1 95.94 28.5248 11.9252 6.78302 13.1422 0.123245 2.93423 
5210 1 95.94 31.9273 12.3378 4.34038 0.665931 -0.219892 -2.63792 
5209 1 95.94 30.7559 13.5031 6.80622 8.14467 -4.7345 -4.23394 
1190 1 95.94 31.913 11.0425 6.33446 3.28207 -2.8796 2.53945 
1044 1 95.94 34.5424 11.4559 4.98888 7.05174 1.1352 -0.239472 
1120 1 95.94 33.3535 13.5454 6.39161 -1.45632 -1.05708 1.33466 
5211 1 95.94 36.3155 13.352 6.15615 -4.3777 3.21837 -1.58785 
7334 1 95.94 36.7307 10.6784 6.36853 3.43453 -3.2676 3.70351 
1191 1 95.94 38.7947 12.3486 5.27196 5.54265 2.10957 -3.14362 
5287 1 95.94 39.4592 10.5709 7.09191 -2.66899 -1.7738 -5.10571 
7188 1 95.94 44.5593 13.8355 4.06164 -7.62332 4.49985 -1.18027 
1118 1 95.94 44.3715 14.0199 7.13686 -0.227453 2.81029 -10.3566 
1192 1 95.94 41.8827 12.0769 6.34191 2.90133 6.28058 -6.61639 
7261 1 95.94 45.8149 11.9833 5.33394 0.615187 1.57698 7.17092 
5142 1 95.94 48.7965 11.5581 5.49461 -0.3824 2.36786 2.59359 
7266 1 95.94 50.7251 13.4867 4.97523 4.40512 -5.73997 1.12581 
4186 1 95.94 0.134575 14.1199 2.63473 5.08926 -3.29552 -13.8437 
5288 1 95.94 48.1574 13.9107 4.93829 4.65557 2.31298 4.81321 
361 1 95.94 1.15084 15.2923 5.21805 -6.1642 -2.58141 5.70041 
2144 1 95.94 1.11635 17.4392 3.99017 8.50583 -2.93032 6.84251 
4192 1 95.94 2.95048 17.9199 5.4032 -1.15464 1.12076 7.94906 
101 1 95.94 51.6144 17.8362 6.11194 0.433658 -3.58175 -8.73279 
2218 1 95.94 5.66288 17.3424 4.92159 4.26258 -8.70615 9.01507 